ITEM: TIMESTEP
0
ITEM: NUMBER OF ATOMS
7
ITEM: BOX BOUNDS pp pp pp
0.0 31.91
0.0 31.91
0.0 31.91
ITEM: ATOMS id mol type x y z c_peratom
1 1 3 16.6319 4.94044 21.8234 -1202.95
2 2 1 9.98841 30.2372 21.6106 -40.7365
3 2 2 9.89083 29.2916 21.4986 12.1636
4 2 2 9.25281 30.6133 21.1272 13.701
5 3 1 21.4082 12.6575 11.0982 -44.1788
6 3 2 22.0897 12.8894 11.7291 15.9721
7 3 2 21.6113 13.1802 10.3225 17.2164
ITEM: TIMESTEP
10000
ITEM: NUMBER OF ATOMS
7
ITEM: BOX BOUNDS pp pp pp
0.0 31.91
0.0 31.91
0.0 31.91
ITEM: ATOMS id mol type x y z c_peratom
1 1 3 16.5001 6.22262 20.8553 -1208.49
2 2 1 11.2502 30.1402 24.0447 -27.2797
3 2 2 10.3503 29.8285 23.9487 6.03611
4 2 2 11.1603 31.0605 24.292 8.96206
5 3 1 23.5905 10.0267 8.05656 -34.3011
6 3 2 22.7753 10.3284 7.65568 9.72691
7 3 2 23.401 9.13311 8.34256 12.4639
ITEM: TIMESTEP
20000
ITEM: NUMBER OF ATOMS
7
ITEM: BOX BOUNDS pp pp pp
0.0 31.91
0.0 31.91
0.0 31.91
ITEM: ATOMS id mol type x y z c_peratom
1 1 3 17.5877 4.89141 20.9094 -1196.52
2 2 1 10.7823 29.9779 25.4379 -34.3815
3 2 2 10.8214 29.7818 24.5018 10.8167
4 2 2 10.6699 30.9276 25.4796 10.6438
5 3 1 19.8445 10.5517 6.76596 -31.3677
6 3 2 19.9767 11.4097 6.3628 9.86123
7 3 2 20.0785 9.92586 6.08054 8.34569
ITEM: TIMESTEP
30000
ITEM: NUMBER OF ATOMS
7
ITEM: BOX BOUNDS pp pp pp
0.0 31.91
0.0 31.91
0.0 31.91
ITEM: ATOMS id mol type x y z c_peratom
1 1 3 18.7205 4.77032 21.2342 -1218.47
2 2 1 10.4585 31.2242 23.341 -44.9549
3 2 2 10.6467 0.0615521 23.9087 15.8186
4 2 2 9.65558 31.4687 22.8808 15.9123
5 3 1 24.5437 8.97739 6.99113 -28.5806
6 3 2 25.4234 9.01347 7.36679 11.1148
7 3 2 24.5694 9.59484 6.26015 6.42077
ITEM: TIMESTEP
40000
ITEM: NUMBER OF ATOMS
7
ITEM: BOX BOUNDS pp pp pp
0.0 31.91
0.0 31.91
0.0 31.91
ITEM: ATOMS id mol type x y z c_peratom
1 1 3 17.8453 4.98799 23.2866 -1249.74
2 2 1 9.41859 0.126269 24.9751 -29.319
3 2 2 9.60572 31.2758 25.5255 6.33286
4 2 2 8.63688 31.7886 24.4813 9.33646
5 3 1 23.6185 8.40841 7.22897 -30.5664
6 3 2 24.4308 8.52836 7.7209 9.27951
7 3 2 22.9593 8.88373 7.73466 11.7498
