ITEM: TIMESTEP
0
ITEM: NUMBER OF ATOMS
7
ITEM: BOX BOUNDS pp pp pp
0.0 31.91
0.0 31.91
0.0 31.91
ITEM: ATOMS id mol type x y z c_peratom
1 1 3 16.6319 4.94044 21.8234 -434.89
2 2 1 9.98841 30.2372 21.6106 -37.6306
3 2 2 9.89084 29.2916 21.4986 11.2198
4 2 2 9.25281 30.6133 21.1272 12.3856
5 3 1 21.4082 12.6575 11.0982 -45.136
6 3 2 22.0897 12.8894 11.7291 16.4085
7 3 2 21.6113 13.1802 10.3225 17.9396
ITEM: TIMESTEP
10000
ITEM: NUMBER OF ATOMS
7
ITEM: BOX BOUNDS pp pp pp
0.0 31.91
0.0 31.91
0.0 31.91
ITEM: ATOMS id mol type x y z c_peratom
1 1 3 16.5001 6.22262 20.8553 -436.007
2 2 1 11.2502 30.1402 24.0447 -24.955
3 2 2 10.3503 29.8285 23.9487 5.44664
4 2 2 11.1602 31.0606 24.292 7.3645
5 3 1 23.5905 10.0267 8.05656 -35.4553
6 3 2 22.7753 10.3284 7.65566 10.3003
7 3 2 23.401 9.13314 8.34256 12.9058
ITEM: TIMESTEP
20000
ITEM: NUMBER OF ATOMS
7
ITEM: BOX BOUNDS pp pp pp
0.0 31.91
0.0 31.91
0.0 31.91
ITEM: ATOMS id mol type x y z c_peratom
1 1 3 17.5877 4.89141 20.9094 -423.509
2 2 1 10.7823 29.9779 25.4379 -32.6166
3 2 2 10.8214 29.7818 24.5018 9.86423
4 2 2 10.6699 30.9275 25.4796 9.52045
5 3 1 19.8445 10.5517 6.76596 -32.3993
6 3 2 19.9767 11.4097 6.36284 10.5218
7 3 2 20.0785 9.92583 6.08054 8.84001
ITEM: TIMESTEP
30000
ITEM: NUMBER OF ATOMS
7
ITEM: BOX BOUNDS pp pp pp
0.0 31.91
0.0 31.91
0.0 31.91
ITEM: ATOMS id mol type x y z c_peratom
1 1 3 18.7205 4.77032 21.2342 -433.842
2 2 1 10.4585 31.2242 23.341 -42.6485
3 2 2 10.6467 0.061608 23.9087 14.3929
4 2 2 9.65558 31.4687 22.8808 15.1471
5 3 1 24.5437 8.97739 6.99113 -29.8936
6 3 2 25.4234 9.01347 7.36681 11.8225
7 3 2 24.5694 9.59483 6.26016 7.16942
ITEM: TIMESTEP
40000
ITEM: NUMBER OF ATOMS
7
ITEM: BOX BOUNDS pp pp pp
0.0 31.91
0.0 31.91
0.0 31.91
ITEM: ATOMS id mol type x y z c_peratom
1 1 3 17.8453 4.98799 23.2866 -449.575
2 2 1 9.41859 0.12627 24.9751 -26.8515
3 2 2 9.60572 31.2758 25.5255 5.34892
4 2 2 8.63687 31.7886 24.4813 8.59938
5 3 1 23.6185 8.40841 7.22897 -31.87
6 3 2 24.4308 8.52837 7.7209 10.0287
7 3 2 22.9593 8.88372 7.73466 12.3495
