ITEM: TIMESTEP
0
ITEM: NUMBER OF ATOMS
9
ITEM: BOX BOUNDS pp pp pp
-8.0462101890987014e-02 4.9807162101891009e+01
-8.0462101890987014e-02 4.9807162101891009e+01
-8.0462101890987014e-02 4.9807162101891009e+01
ITEM: ATOMS id type mol x y z vx vy vz
1 1 1 1.26171 43.7574 2.44596 -0.0053751 0.00933928 0.0049119
2 2 1 1.26545 44.2062 1.60051 0.00397108 -0.00441058 -0.00234949
3 2 1 0.502835 43.1755 2.40538 0.0064835 -0.00567446 -0.00158782
4 1 2 47.2584 42.964 6.40489 -0.014493 -0.0150635 -0.0253844
5 2 2 46.6334 42.5879 7.02469 7.7284e-04 0.0103905 0.00562813
6 2 2 47.9567 42.3122 6.34306 -0.00677479 -0.00921737 -0.0010896
7 1 3 43.3982 33.8482 5.04672 0.00263417 6.38134e-04 -0.00122614
8 2 3 42.8339 33.4646 5.71804 8.51566e-05 -0.00185352 -0.00478612
9 2 3 44.1777 33.2927 5.04236 0.00196752 -2.97193e-04 -0.00143841
ITEM: TIMESTEP
1000
ITEM: NUMBER OF ATOMS
9
ITEM: BOX BOUNDS pp pp pp
-8.0462101890987014e-02 4.9807162101891009e+01
-8.0462101890987014e-02 4.9807162101891009e+01
-8.0462101890987014e-02 4.9807162101891009e+01
ITEM: ATOMS id type mol x y z vx vy vz
1 1 1 3.71999 44.0685 1.85119 -0.01543 -4.88113e-04 0.00944695
2 2 1 3.54546 44.6307 1.09645 0.0034359 -0.00248604 0.00360428
3 2 1 3.47347 43.191 1.55885 -0.00150728 -0.0023424 0.00328093
4 1 2 47.4256 43.0811 6.07565 -0.00628182 0.00289692 0.00282751
5 2 2 47.2743 42.9243 7.00772 -0.00481495 9.06083e-06 0.00257174
6 2 2 47.276 42.2311 5.66186 -0.00135849 0.00289647 0.00108878
7 1 3 42.4932 33.9277 5.17318 -0.0042586 -0.00398675 -0.0131878
8 2 3 41.7601 33.4809 5.59653 0.00134075 -0.00282998 -0.0023196
9 2 3 43.1529 33.2448 5.05213 0.00378313 0.00109376 0.00222749
ITEM: TIMESTEP
2000
ITEM: NUMBER OF ATOMS
9
ITEM: BOX BOUNDS pp pp pp
-8.0462101890987014e-02 4.9807162101891009e+01
-8.0462101890987014e-02 4.9807162101891009e+01
-8.0462101890987014e-02 4.9807162101891009e+01
ITEM: ATOMS id type mol x y z vx vy vz
1 1 1 3.88982 44.2818 1.32499 -0.00900425 0.00844125 -0.00468502
2 2 1 4.16211 44.8339 0.592016 0.00194393 0.00421334 -0.00383863
3 2 1 3.88038 43.3943 0.966412 -0.00176534 0.00613775 7.69328e-04
4 1 2 45.9237 42.178 6.63486 -0.0148841 -0.0191586 0.00834513
5 2 2 46.5687 42.2791 7.33487 -0.00793212 -0.00100756 -6.59315e-04
6 2 2 46.3129 41.5363 6.04077 2.45445e-04 7.41467e-04 -0.00327968
7 1 3 43.0453 33.7798 4.26593 -0.0172284 -0.0130122 -0.0173461
8 2 3 42.4237 33.4285 4.90348 -0.00717029 -4.84375e-04 -6.48967e-04
9 2 3 43.7472 33.1299 4.23181 -0.00583097 -0.00173381 0.0025459
ITEM: TIMESTEP
3000
ITEM: NUMBER OF ATOMS
9
ITEM: BOX BOUNDS pp pp pp
-8.0462101890987014e-02 4.9807162101891009e+01
-8.0462101890987014e-02 4.9807162101891009e+01
-8.0462101890987014e-02 4.9807162101891009e+01
ITEM: ATOMS id type mol x y z vx vy vz
1 1 1 2.48274 44.2799 2.0408 0.00468436 0.00293728 0.00258303
2 2 1 2.85426 44.8629 1.37872 -0.00134399 0.00286913 -8.6518e-04
3 2 1 2.13554 43.5405 1.54185 -0.00514967 0.00570006 0.00531796
4 1 2 46.2719 42.427 4.88709 -0.0041169 -5.89788e-04 0.0085031
5 2 2 45.7139 41.7524 4.4999 -0.00155222 0.00450005 -0.00404793
6 2 2 46.8711 41.9448 5.45688 -4.72253e-04 -0.00917973 -0.00260219
7 1 3 42.1152 32.771 4.76804 0.00135719 0.00364745 0.00165602
8 2 3 41.3368 32.9663 5.28982 -0.00101823 -4.17377e-04 -3.59819e-04
9 2 3 42.6093 32.1462 5.29875 -0.00396133 -0.00501904 -0.00358106
ITEM: TIMESTEP
4000
ITEM: NUMBER OF ATOMS
9
ITEM: BOX BOUNDS pp pp pp
-8.0462101890987014e-02 4.9807162101891009e+01
-8.0462101890987014e-02 4.9807162101891009e+01
-8.0462101890987014e-02 4.9807162101891009e+01
ITEM: ATOMS id type mol x y z vx vy vz
1 1 1 2.02203 44.4312 2.23581 0.00966696 -0.00295806 0.00820899
2 2 1 2.42027 45.2648 1.98522 -0.00446364 2.21639e-04 -0.00372129
3 2 1 2.51175 43.7733 1.7423 0.00417037 4.3706e-04 -0.00178988
4 1 2 46.042 43.2191 4.88752 -0.00944999 0.00476433 0.00510548
5 2 2 45.7321 42.3656 4.58461 -8.72065e-04 0.00389455 -0.00111654
6 2 2 46.2916 43.0738 5.80012 0.00175265 -0.00174532 9.61423e-04
7 1 3 42.1121 32.6885 5.02419 0.00740843 0.00391536 0.0267909
8 2 3 41.1729 32.6322 5.20043 0.00208507 -0.00238741 -0.00317099
9 2 3 42.4602 31.8425 5.30596 -0.00141779 -0.00697215 0.00524989
ITEM: TIMESTEP
5000
ITEM: NUMBER OF ATOMS
9
ITEM: BOX BOUNDS pp pp pp
-8.0462101890987014e-02 4.9807162101891009e+01
-8.0462101890987014e-02 4.9807162101891009e+01
-8.0462101890987014e-02 4.9807162101891009e+01
ITEM: ATOMS id type mol x y z vx vy vz
1 1 1 2.83449 44.2066 3.54628 -0.0106367 -0.00401269 -0.00512714
2 2 1 2.68135 45.0353 3.09252 -0.00195505 -6.68583e-04 -0.00190943
3 2 1 3.01555 43.5795 2.8461 0.00566355 0.00178243 -0.00605573
4 1 2 45.4331 43.2921 5.56652 0.00119033 -6.88157e-04 -0.0034743
5 2 2 45.1165 42.3892 5.59111 -0.00127308 1.66565e-04 -0.00371285
6 2 2 45.7608 43.4557 6.4509 -0.00166003 -6.38502e-04 -0.00242415
7 1 3 41.0447 32.5604 4.79874 5.3733e-04 -0.00393533 -0.00253773
8 2 3 40.1169 32.4631 5.01313 4.80591e-04 -0.00180012 -0.00181319
9 2 3 41.4277 31.7057 4.99668 -9.29915e-04 -0.00425748 -0.00108857
ITEM: TIMESTEP
6000
ITEM: NUMBER OF ATOMS
9
ITEM: BOX BOUNDS pp pp pp
-8.0462101890987014e-02 4.9807162101891009e+01
-8.0462101890987014e-02 4.9807162101891009e+01
-8.0462101890987014e-02 4.9807162101891009e+01
ITEM: ATOMS id type mol x y z vx vy vz
1 1 1 3.17954 44.2828 4.37042 -0.00576529 -0.004781 -0.0168127
2 2 1 3.07188 45.1968 4.1072 0.00314873 -9.2082e-04 -0.00703
3 2 1 3.96555 43.9911 3.90857 0.00423168 -9.09199e-04 -0.0022312
4 1 2 44.3707 43.9967 4.60327 6.53205e-04 -0.00538078 5.9698e-04
5 2 2 44.0875 43.7372 5.48003 -0.00107656 -3.01073e-04 0.00154861
6 2 2 43.5848 43.9143 4.06306 -0.00107415 0.00247518 0.0018947
7 1 3 39.8001 32.5765 5.19824 -0.00203446 0.0097148 0.0086402
8 2 3 38.9656 32.1402 5.37022 -0.00239637 0.00270417 -0.0107366
9 2 3 40.4625 31.9561 5.50258 -0.00317945 0.00460411 7.58396e-04
