ITEM: TIMESTEP
0
ITEM: NUMBER OF ATOMS
6592
ITEM: BOX BOUNDS pp pp pp
0.0 40.43
0.0 40.43
0.0 40.43
ITEM: ATOMS id type mol x y z c_peratom
1 3 1 14.915656277 37.2302004719 3.6671046705 -1192.5416971606
2 1 2 21.0712843673 19.6423715731 8.0836792103 -36.056349083
3 2 2 20.7980678174 18.8766608969 8.5889234258 13.4271710867
4 2 2 21.2660338483 19.2978109895 7.2121389164 12.8767449105
5 1 3 29.383210401 33.6023560027 38.8242197713 -32.1751428522
6 2 3 29.2050989771 32.7604715741 38.4050076895 8.2932860638
7 2 3 28.5420505224 33.8681827235 39.1957275817 13.2881144365
8 1 4 17.5546920377 11.4482494161 40.2714512442 -36.3740410537
9 2 4 18.2471569937 11.1461781189 39.6836782811 15.4360842109
10 2 4 18.0180440766 11.9057895886 0.5430164362 13.9739557684
11 1 5 17.753282052 7.6778752788 38.6959873178 -34.7165706947
12 2 5 18.1878706255 8.444630171 38.3225551994 10.9499688986
13 2 5 18.4592573943 7.0472394557 38.8378644294 14.7252810332
14 1 6 27.4531776703 17.5841058196 35.5755773117 -30.2922256246
15 2 6 27.7433472495 18.4751419461 35.3804156438 9.9975322343
16 2 6 26.5485295468 17.5527343722 35.2643548112 7.255593808
17 1 7 9.9655045743 5.634912553 19.6788134759 -29.0381926768
18 2 7 10.7580724528 5.5988578319 20.2143207635 9.4933249373
19 2 7 9.2473959573 5.5681421755 20.3081731274 10.2041352624
20 1 8 9.805236498 10.6994924506 17.6399422837 -33.4094110775
21 2 8 10.152915248 9.8082157359 17.6712015964 11.0293432826
22 2 8 9.6423394569 10.8610931279 16.7106513631 11.5516340095
23 1 9 23.7326290528 37.0533442296 32.0156860261 -34.8451713431
24 2 9 23.2275826561 36.3630701205 31.585940018 11.3795236155
25 2 9 24.4166657826 37.278281046 31.3850284162 11.9189906372
26 1 10 6.2928008501 13.3736943374 11.6217183211 -26.8365433948
27 2 10 6.1989507632 12.6923349813 10.9560055985 7.89840369
28 2 10 7.0190872541 13.9142952995 11.3110891223 5.1622924489
29 1 11 40.2097115516 34.1057118163 32.1103417769 -30.7048731631
30 2 11 39.5011098574 33.5009867534 32.3303942192 8.5614013669
31 2 11 39.9696120063 34.4545513022 31.2519158561 9.1906745834
32 1 12 33.8645412678 9.8549301756 12.1583098551 -31.5260809774
33 2 12 33.866886432 10.8111740854 12.2010172922 8.9555787002
34 2 12 34.4717797888 9.5824889953 12.8462553631 10.4867868716
35 1 13 38.025361588 17.9389499823 15.2262742831 -33.1108671203
36 2 13 38.3023199548 18.2866944399 14.3785716847 13.3195736517
37 2 13 38.6402967074 17.2278848227 15.406476885 11.9380900342
38 1 14 24.569552008 32.8399964183 34.0569076972 -36.4928130113
39 2 14 25.3396753414 32.4573159847 33.6365535879 13.397450826
40 2 14 24.857016208 33.0403233801 34.9476743793 13.0967197487
41 1 15 5.1333888057 7.2725103256 0.0088613088 -36.3416699313
42 2 15 4.960077022 6.4681098663 39.9498472325 10.5789492044
43 2 15 5.940209565 7.6170092123 40.0559871527 11.948331323
44 1 16 29.1390309181 32.267562233 22.3170445354 -25.9149972515
45 2 16 29.8447135916 32.9091125994 22.3986345571 6.7481608157
46 2 16 28.5906934883 32.4146400307 23.0877104971 10.0493131148
47 1 17 2.7223822954 3.8898483889 11.9998229739 -30.154258317
48 2 17 2.1599994511 4.5309430072 12.4345125952 11.3215018088
49 2 17 3.5596256825 3.9544629283 12.4592577485 10.1866781134
50 1 18 12.0823213358 4.6341950319 37.2934964288 -41.0633478092
51 2 18 11.6259841476 4.1876387257 36.5803515094 13.2903777935
52 2 18 12.2366242044 3.9502533617 37.945145304 13.7147427544
53 1 19 7.8159312416 29.1196203923 17.8267262481 -29.3015534301
54 2 19 6.9424013391 29.4872652139 17.6925076408 7.1671868398
55 2 19 8.4121086591 29.7880471981 17.48907268 7.1242777748
56 1 20 33.6811722332 2.2528545556 33.0427323777 -30.4205066067
57 2 20 34.2972415409 2.3049832422 32.3119977828 8.8410429766
58 2 20 32.8272190074 2.1293022584 32.6283285192 8.5195714126
59 1 21 10.9569641653 8.4967591963 7.8284348762 -31.723880714
60 2 21 10.7704871677 9.189745406 7.1950090459 11.1596295244
61 2 21 11.7040796663 8.8241386883 8.3293070518 9.1426110438
62 1 22 7.3620167542 4.2841310103 40.2214301804 -32.3120988758
63 2 22 6.5383563352 4.5077109468 39.7880396334 6.5354081013
64 2 22 7.1165128828 3.640456142 0.4559919556 15.4314347472
65 1 23 14.9239670842 35.675538259 25.4511803559 -28.2035069353
66 2 23 15.7903452162 36.0823577317 25.4402859092 6.7340913824
67 2 23 14.5763012194 35.8745585252 26.3205198869 8.4045381462
68 1 24 17.908882897 14.1584522178 26.2669513287 -33.7285236372
69 2 24 17.9554978396 14.3950647649 25.3406288203 10.6844762558
70 2 24 16.9859465921 14.267220025 26.4962763845 11.0247676764
71 1 25 36.065638634 10.9369904957 26.0249820551 -26.2254140478
72 2 25 36.1305744078 11.1770255553 26.9493187662 7.3407171892
73 2 25 35.317989234 10.3407029175 25.9838318566 10.3212303764
74 1 26 28.2302610476 2.5399973353 8.6794866712 -28.9956799675
75 2 26 27.4439405048 2.1854378552 9.0944799473 12.1396091776
76 2 26 28.9228424072 2.4102035889 9.3273419665 5.4302139189
77 1 27 39.5439987632 12.5180264424 7.3531363938 -34.2529424042
78 2 27 38.6892216297 12.7638829664 7.7068911984 11.1947012981
79 2 27 39.3413097716 11.9733272104 6.5925762323 10.3221772645
80 1 28 23.1673849919 8.3236960793 32.6273736569 -37.9783695183
81 2 28 23.0056587979 7.4553711159 32.9962750479 12.6748681127
82 2 28 23.4895333141 8.841646324 33.36505912 12.729296873
83 1 29 15.7978771754 10.5900477725 3.7684460331 -36.7410397353
84 2 29 16.305660016 10.0763698251 4.3965570051 11.6099554166
85 2 29 14.8852272712 10.3934364093 3.9797419496 15.5446563353
86 1 30 21.0201826225 8.5862493238 19.3412269991 -26.8773232704
87 2 30 20.7676026975 7.7220805065 19.0161924212 11.0663366776
88 2 30 20.7086496663 9.195034638 18.671481153 7.1731453315
89 1 31 2.7387520189 21.7190028098 9.395921428 -31.2511909101
90 2 31 3.218680181 21.282290371 8.6922289916 6.7952033865
91 2 31 2.1721191755 21.0380558712 9.7585098001 13.9488301546
92 1 32 27.546002407 8.0596105928 9.8197755726 -35.8731318884
93 2 32 27.0991441958 8.4242489559 10.5837051788 15.820228275
94 2 32 27.7049742655 7.1439870032 10.0491077125 10.0377791953
95 1 33 31.3964743966 39.9729116961 25.7676101091 -23.0410844836
96 2 33 30.8314859343 40.0133486237 26.5392218847 5.6588480959
97 2 33 32.1326475469 0.1170702032 25.9788515384 6.8097002996
98 1 34 29.2006982277 4.1850225588 28.3912673458 -34.2701248198
99 2 34 28.7303521402 3.4082376653 28.0885932186 9.1622323487
100 2 34 29.1864625995 4.1173698599 29.3459674554 13.9666384346
101 1 35 6.2591690729 24.4325161327 6.1271884885 -32.0116004608
102 2 35 7.0185971907 24.9833415941 5.9372093191 13.3393711076
103 2 35 5.7071967517 24.5080280513 5.3488207433 10.1325260418
104 1 36 25.7776648363 3.7724613903 19.0859889501 -31.4670025611
105 2 36 26.1255912187 3.5117887993 18.233211797 11.8256499245
106 2 36 25.6800017645 2.9505397747 19.5667577327 8.0873442302
107 1 37 20.5155805638 30.1235007217 19.6399503521 -33.3939321599
108 2 37 20.5856668242 30.7652985487 18.9332571334 11.5297069425
109 2 37 20.2938268511 29.3036580625 19.1984583984 9.7374399837
110 1 38 18.497170785 13.5662206159 16.1692287092 -27.8452548291
111 2 38 18.5380911941 14.4783620218 16.4565532919 11.9706022435
112 2 38 18.8449291248 13.5796603954 15.2775363018 6.5762471074
113 1 39 32.1469627145 17.5956324742 30.8375914404 -36.5639970257
114 2 39 31.5489003166 18.0059331019 31.4622566333 14.2350701658
115 2 39 32.8838547571 18.2034512576 30.776123693 12.4698711654
116 1 40 30.1247093762 30.9735211946 12.7602873002 -26.0648753388
117 2 40 30.5559339765 30.1974163284 13.1179721068 7.702915958
118 2 40 29.1914207687 30.8175254668 12.9047502644 7.8751153648
119 1 41 3.7276110714 2.9959553902 37.6532443827 -36.3630129265
120 2 41 2.8783182365 2.8733330051 38.0773873672 10.3833224511
121 2 41 3.9799275751 2.1192733567 37.3634223095 16.0311810402
122 1 42 11.7276118296 38.9018379659 36.9117927301 -33.8194945076
123 2 42 11.6256763186 39.8527390848 36.9521418764 9.709520772
124 2 42 10.8367666795 38.5694382158 36.8016239291 11.4014879785
125 1 43 32.4370471057 15.4819722803 5.214278558 -36.2964133236
126 2 43 32.8216798276 15.6041922624 4.3463201574 11.7536934665
127 2 43 31.5220935645 15.2595577508 5.0421633798 13.1446266035
128 1 44 23.1569433339 34.924081915 30.449418419 -40.2265227416
129 2 44 22.8864314186 35.2842364462 29.6048215581 16.6415849577
130 2 44 22.6875126059 34.0926552276 30.5172143996 14.2791240313
131 1 45 22.0138488771 33.9525063326 33.6158018253 -37.8133894607
132 2 45 22.7245887818 33.3254486494 33.7495152864 13.1207409522
133 2 45 22.2168636255 34.6755162192 34.2093281987 14.6223993964
134 1 46 17.1615352744 16.2621259193 27.9022475328 -35.7965397885
135 2 46 16.9132501602 15.5371541613 28.4758347469 11.9019968465
136 2 46 17.65648804 15.8494795635 27.1944505387 13.1363649752
137 1 47 17.2461953108 17.2759823498 33.2482339302 -37.6153925663
138 2 47 16.6246784295 17.4137750282 32.533418021 11.1239311965
139 2 47 16.9194502943 16.5003659797 33.7041821516 13.6096588792
140 1 48 38.4086247255 15.4323745545 27.0255091313 -25.1636516165
141 2 48 38.262820742 14.920233122 26.2300946534 6.9543924512
142 2 48 37.5740887994 15.3929655658 27.4926585289 7.7790779973
143 1 49 28.5216842075 1.1924575704 31.388137271 -32.606156988
144 2 49 29.060383104 0.6427524381 30.8190506287 10.1617054373
145 2 49 28.0380118765 1.7588244418 30.7868707052 14.8226714695
146 1 50 24.9308012974 29.2562460857 10.148988457 -33.8377818988
147 2 50 25.0418716314 28.6231075233 9.4397418274 12.0988190687
148 2 50 25.7356876942 29.7741610215 10.1365849281 10.7377339856
149 1 51 22.5407976682 2.3184595044 24.610345948 -31.0608004223
150 2 51 23.2246568609 2.015157304 24.0132059144 7.7273541741
151 2 51 21.7488633914 2.3472683753 24.0734642197 11.7777568454
152 1 52 13.1179709926 28.3250929094 21.8887592943 -29.404451305
153 2 52 12.9794392054 28.7288114396 22.7455277183 7.11618217
154 2 52 14.0027059842 27.9626233341 21.9344937621 9.6201993143
155 1 53 29.0826325982 17.5219563754 5.0522751548 -37.2042210225
156 2 53 28.9226827645 18.4594028178 4.9434539329 10.7403338795
157 2 53 29.840837603 17.4738714402 5.6345507336 12.9211892286
158 1 54 3.8695205305 9.5442337179 17.0603395329 -31.0283656906
159 2 54 3.7040555875 9.9052294499 17.9312788386 9.4728723156
160 2 54 4.5567013013 10.1020918438 16.6959101987 13.0367787126
161 1 55 33.8264634001 12.6209045768 12.6908575274 -34.2525276857
162 2 55 34.5175767165 13.2704796273 12.8198787563 13.3338437646
163 2 55 33.1985515054 12.7961138824 13.3917570864 11.9912750952
164 1 56 27.2517078597 12.9042781371 22.8010874927 -31.7589979207
165 2 56 27.6010063529 13.6308828082 23.3170991734 6.8598004292
166 2 56 26.5815959697 12.5125113244 23.3611773599 12.7072816919
167 1 57 24.2261582338 34.4331590164 2.5359450614 -42.8543852937
168 2 57 24.4170833541 34.2356516509 3.4528803257 17.5833488151
169 2 57 24.3562896867 33.6020320256 2.0792990605 14.0432839527
170 1 58 37.3597349731 11.7472489907 3.5647238166 -31.8762855114
171 2 58 37.7546787431 12.611205236 3.6823285137 12.7493289635
172 2 58 36.4231903997 11.9220753486 3.4722476214 8.9853894266
173 1 59 38.3112566975 22.064933791 31.0731385681 -29.5728686884
174 2 59 38.7161118459 22.680111175 30.4616805278 9.4226885903
175 2 59 37.7587557361 21.5089918991 30.5236814354 10.4081949505
176 1 60 21.9952706092 37.9671049734 18.3714276869 -33.7052807823
177 2 60 22.9263189245 38.0193747809 18.1554444892 9.8837067255
178 2 60 21.624254191 38.7819313991 18.0328474846 9.5668217341
179 1 61 2.573638166 32.438964457 13.026517645 -33.2630766377
180 2 61 2.2847546275 31.5641604098 13.2863176069 12.3239209694
181 2 61 1.9231571549 33.0292975889 13.40679792 11.1791572709
182 1 62 3.5712413437 38.5128646984 8.9656926778 -35.7754500473
183 2 62 2.8551496059 38.6917097053 8.3562183744 14.1946562104
184 2 62 3.1370098385 38.2196227041 9.7667444693 9.4956448562
185 1 63 39.4436661654 35.0920403426 29.6280579616 -34.9440654056
186 2 63 39.7069739959 35.9948778487 29.8063421838 11.6349330164
187 2 63 38.7584846467 35.1685542951 28.9640521322 10.7413462146
188 1 64 18.6347185346 29.4459697515 36.449636082 -32.1495653713
189 2 64 18.5471144404 28.5697586194 36.0743876114 8.85633158
190 2 64 18.1395659666 30.0114671036 35.856956979 11.9691834464
191 1 65 36.5207442965 5.0398072214 32.0505341063 -34.7715517013
192 2 65 37.2934188888 4.5744932414 32.370984905 10.4042798284
193 2 65 36.8314759855 5.9277472397 31.8737851845 11.6791859492
194 1 66 7.9161015253 26.0743901159 13.2290884752 -34.7981218497
195 2 66 8.7522074918 25.7703507274 12.8759331226 13.170196476
196 2 66 7.6175389874 26.7349615733 12.6039984012 9.7208154607
197 1 67 25.9466491434 24.2974846484 19.0319980218 -32.8664920745
198 2 67 26.2554483714 24.1008778998 19.9164304179 14.1016901917
199 2 67 26.0915650283 23.4882202548 18.5417711686 9.4369126353
200 1 68 37.8863882595 28.6125951343 10.2479638979 -33.1171285007
201 2 68 38.7667238588 28.2400705128 10.1983002398 12.9357969482
202 2 68 37.8483444239 29.2360359116 9.522632178 8.9339366849
203 1 69 1.8003634142 6.8237840911 23.5996188015 -28.4265092419
204 2 69 0.9418387353 7.1763436673 23.3653775564 6.0588986897
205 2 69 2.3296910668 6.93665126 22.8101220768 10.9896451459
206 1 70 24.9837751403 7.1404737328 28.6396282411 -35.6914550479
207 2 70 24.6818637386 6.2328071354 28.6046612055 9.9247681585
208 2 70 25.1073279685 7.3165286953 29.5723507019 12.5782070339
209 1 71 26.6141512825 3.483550326 23.6829869342 -30.9473480837
210 2 71 26.426322163 4.1122379948 24.3799115191 8.8529768796
211 2 71 27.4568631815 3.1002788049 23.9262387306 10.4018338603
212 1 72 37.0798196871 13.6167697542 7.6595357425 -38.4883452321
213 2 72 36.4503582068 12.9099101349 7.8022226841 15.3900764612
214 2 72 36.5885548357 14.2818888454 7.1773456552 11.9679465441
215 1 73 18.2787556858 13.2229341803 37.3562392367 -34.5515766565
216 2 73 18.054116588 14.1153579418 37.6195811164 11.3292084555
217 2 73 19.0689389708 13.0170491842 37.8556925221 11.1033236447
218 1 74 36.6619769571 32.0671593791 14.1729017043 -27.897294567
219 2 74 37.0068511398 31.9001097875 15.0500493954 11.7868579321
220 2 74 35.7705187636 31.719259416 14.1952566777 8.3035989778
221 1 75 34.9471346702 20.0958852334 9.4195407974 -30.3526044032
222 2 75 34.8646724802 20.8919029242 8.8943859029 9.6439561199
223 2 75 34.1238381013 19.6285932505 9.2779328794 8.4085153526
224 1 76 11.891596753 6.1539682924 16.3602680225 -37.1173409578
225 2 76 12.7720273227 6.4535214812 16.133680867 11.8178072723
226 2 76 11.4876079489 6.904268393 16.7962435323 14.0306608473
227 1 77 33.8439192639 20.7103502582 0.7084001164 -27.2726713283
228 2 77 33.2657807661 20.0939606142 0.258898699 11.5136042034
229 2 77 33.2981233572 21.4810172768 0.8646403629 7.2811984158
230 1 78 5.6658512673 21.0621270353 15.9991873059 -34.0483089768
231 2 78 4.7202369297 20.9199792696 16.0420752659 13.2741188109
232 2 78 5.7714489475 22.0075910668 16.1049168435 10.9396504848
233 1 79 20.9232763164 5.946046579 6.8493687725 -42.8824448539
234 2 79 20.0138178485 5.7050498866 7.0255440527 15.5390041939
235 2 79 21.3730522732 5.811724233 7.6835695493 14.7124632215
236 1 80 20.6422794186 30.3818320848 14.8903839318 -30.6484615564
237 2 80 20.3742678727 29.4983298321 14.6377469972 14.215785455
238 2 80 21.2690989676 30.6444403956 14.2163171931 9.4869343294
239 1 81 14.6705982841 33.3879352783 2.717601802 -67.7766771623
240 2 81 13.867010984 33.2661326789 2.2119898778 24.3547933158
241 2 81 15.3753138811 33.2095394996 2.0948797825 23.620682645
242 1 82 10.8431888301 26.1275795056 7.8544466803 -34.5365681422
243 2 82 10.6279110669 25.2494781517 8.1688116546 13.3216836884
244 2 82 11.3745719136 26.5090827538 8.5532450276 10.6464909224
245 1 83 24.1938635329 20.0920221187 11.5940495573 -36.925743036
246 2 83 25.1219083498 19.8782061213 11.4978862735 10.4302588788
247 2 83 23.9823117719 19.8434689922 12.4938823394 11.2496267433
248 1 84 23.9817305499 10.1677275906 36.7197750125 -31.1764520337
249 2 84 23.4782542535 9.4614286762 37.1246025097 9.2348056982
250 2 84 23.5255284703 10.9677358938 36.9807313641 9.6936374202
251 1 85 13.9476704273 22.1583173832 11.3128351767 -34.1025130432
252 2 85 13.0229858045 21.949280173 11.1805716779 15.4987047344
253 2 85 14.204996361 22.6228434288 10.5164491165 8.8087998305
254 1 86 22.6861073088 16.0444414062 13.1995012149 -35.9257271904
255 2 86 23.1755354986 16.4544795207 13.9126355862 15.0537087085
256 2 86 23.0182547201 16.4661136808 12.4069720797 11.0272206075
257 1 87 40.4192560366 30.7027972423 25.2481276357 -34.0454921354
258 2 87 40.4110119276 31.6446277871 25.4187708294 12.0339378964
259 2 87 0.5110180078 30.6078371594 24.4512720227 12.9721874538
260 1 88 25.5646051354 29.4860625176 20.3498602156 -29.3570043356
261 2 88 25.4622109517 29.6747794572 21.2826695143 7.8752094429
262 2 88 25.8815976897 28.5833354848 20.3210250838 9.0809772209
263 1 89 27.2490485429 30.5838029201 9.4067275036 -35.0641884784
264 2 89 28.111772009 30.9721213273 9.5521540334 11.8708239118
265 2 89 26.9287985761 31.0028790647 8.6079490714 11.432997823
266 1 90 25.2870770807 17.072717814 39.9626638974 -37.0628358254
267 2 90 25.615502106 17.2025735527 0.4223303124 14.1247919869
268 2 90 25.9931477061 17.3870083082 39.3979360008 11.0328371713
269 1 91 30.0706034706 26.5092937295 30.6763794083 -25.0990486648
270 2 91 29.6871693836 25.8815521497 31.2888748367 8.8094120638
271 2 91 30.012958837 27.3512173289 31.1281244568 9.1867370685
272 1 92 9.9912438329 31.968579105 30.7028907546 -28.61936149
273 2 92 10.3403673009 31.9255906168 29.8126679544 9.7221927992
274 2 92 10.7660209647 32.0266726242 31.2619769546 8.0452956155
275 1 93 36.4191929898 33.6170539749 26.0708104898 -35.8744988068
276 2 93 36.3870676862 34.2664495195 26.7732955298 9.0001841913
277 2 93 36.1565478269 34.0987829068 25.2864721734 12.1838627057
278 1 94 12.9796093678 20.8177786473 34.7173047205 -35.1545630453
279 2 94 12.3545313506 20.6238222246 35.415796108 12.2908906157
280 2 94 12.712094562 21.6755097746 34.3872062778 11.3683319489
281 1 95 33.8391668177 0.4663068333 26.7031909229 -30.0047502267
282 2 95 33.9170458837 1.2480182725 27.250085718 10.9361234783
283 2 95 34.1691067542 40.1852508605 27.2525276884 7.1588044632
284 1 96 26.3116808653 40.1987080315 26.1838071384 -29.5287306016
285 2 96 25.7227084778 39.478160355 26.4077589472 10.4814760177
286 2 96 26.5543251492 40.035876035 25.2723021563 8.7129552793
287 1 97 38.2262203075 32.038226385 2.8323415986 -35.7611233316
288 2 97 37.270657729 32.0133907554 2.8824932695 11.9386688559
289 2 97 38.4954823263 32.5141540778 3.6179767789 11.1080089895
290 1 98 34.4253015219 23.8502750437 3.1467712827 -33.3925403096
291 2 98 35.1494049629 23.3063759253 2.8368038719 8.7256607466
292 2 98 34.2883350489 24.4890035331 2.4471299873 12.8427801751
293 1 99 24.466062405 34.8003951935 18.2789918259 -27.4716478922
294 2 99 24.1150301233 34.0226931034 18.7127978151 9.5399329195
295 2 99 25.3583782901 34.5560388536 18.0334430928 6.7716021389
296 1 100 9.1390733117 2.3367473277 9.7620847521 -43.048001102
297 2 100 8.6138164773 3.12558598 9.8965119762 12.1646271591
298 2 100 9.0088817229 2.1160136178 8.8398274022 19.9415433135
299 1 101 7.2884329268 18.4616516266 1.5988050823 -35.2259350413
300 2 101 7.4343622237 18.7516550287 2.499268578 11.8555397343
301 2 101 7.8770647031 17.7148959398 1.4888031911 10.6679357253
302 1 102 30.9039021114 5.9158907869 36.0395865816 -27.3567535351
303 2 102 31.2923247865 6.5501332012 36.6421612454 5.6137424152
304 2 102 30.4269997014 5.3084666267 36.6051233364 9.0419880527
305 1 103 33.5410687557 24.2673536988 12.3650506385 -38.3427024023
306 2 103 33.8973853523 24.7236132737 13.1273481679 13.6558865874
307 2 103 33.875083259 23.3736695061 12.4424761852 13.4067256093
308 1 104 7.7221484574 32.6036865461 15.0423714254 -37.8001379568
309 2 104 7.005361566 33.216810361 14.8794985307 11.4857207097
310 2 104 7.3397169711 31.7403065596 14.8856774651 16.5857616396
311 1 105 16.5016908417 39.1197807735 34.1197028786 -44.4596728191
312 2 105 15.617458072 38.9854058501 34.4607419216 15.7416350702
313 2 105 16.9022561607 39.7398691967 34.729021853 15.4785690387
314 1 106 15.485040318 38.7379829798 14.671107641 -34.5891678824
315 2 106 15.8932299159 39.3369311391 15.2963069649 9.5048836908
316 2 106 15.9889204177 38.8521599276 13.8653159125 12.1353305261
317 1 107 15.9917752843 9.1271790668 35.7062748164 -37.3156494827
318 2 107 16.8107161232 8.7246378031 35.9952873998 13.6286350427
319 2 107 16.1523548037 10.0687971634 35.7679304583 11.6127126668
320 1 108 7.1087686705 32.5464538724 8.6164290217 -35.0838294744
321 2 108 7.5785828798 31.9044699361 8.0841104384 12.1810952516
322 2 108 6.6433179345 33.0904558082 7.9810949787 13.5642130869
323 1 109 4.0195994053 34.2624311997 35.2355595853 -38.188774398
324 2 109 3.2159166727 34.322353633 35.7520237246 10.5844365613
325 2 109 3.7992307524 34.6742845163 34.4000679082 11.4731859786
326 1 110 11.583321209 40.3386457358 4.9781507833 -54.6575501817
327 2 110 11.9415178882 40.1877184845 4.1034234293 22.8416541266
328 2 110 11.8836480181 0.7868526593 5.2122196776 15.8756002615
329 1 111 25.2161862937 3.0490288563 8.5176292153 -35.9066839685
330 2 111 24.9231589039 3.9438651959 8.3454818535 11.5544308261
331 2 111 25.1209711084 2.5995880024 7.6778859049 12.5985364239
332 1 112 19.8611511003 19.6023229631 1.9696770344 -34.1832692981
333 2 112 20.1504717854 20.1930882009 2.6650343633 11.3676495098
334 2 112 20.3882755175 18.8125966348 2.090937148 9.5841094293
335 1 113 39.9990703713 22.5329867617 16.3366946124 -31.6508351417
336 2 113 0.176377972 21.8059349707 16.1995632469 9.83096592
337 2 113 39.5283784711 22.3045857592 17.1382642957 11.3126519883
338 1 114 18.5305575217 8.0819025837 30.6424023864 -40.3837581922
339 2 114 17.982781725 8.7877089402 30.9859295377 16.1188438015
340 2 114 18.5918708737 7.453754787 31.3620570664 12.4396753825
341 1 115 25.3522641538 30.2476365709 22.8321137118 -32.7982433912
342 2 115 25.0513220951 29.9030746738 23.6729126273 11.0785595261
343 2 115 26.0601318686 30.8505631619 23.0593463332 10.1281593628
344 1 116 30.2313368769 7.2569290604 1.1302538819 -26.4328005643
345 2 116 30.438154213 7.2512306725 2.064826489 8.9204924233
346 2 116 31.0440741353 6.9865532005 0.7029520178 5.0602856492
347 1 117 15.8970454593 33.2091155134 8.5184514914 -53.498983746
348 2 117 15.6186549686 32.3027330261 8.6496054521 15.2628047561
349 2 117 15.4727380908 33.4748295474 7.7026137936 24.5168341998
350 1 118 16.754919777 22.3427588554 13.9284509961 -26.1520772774
351 2 118 16.3288875689 22.3247074121 14.7854238913 5.648407486
352 2 118 16.4781024116 21.5298327432 13.5056565752 12.524794498
353 1 119 15.8653792754 13.1532721423 14.3993809599 -32.9846103742
354 2 119 15.0699138898 12.626455275 14.4763916644 10.5894230849
355 2 119 16.3980154108 12.8950255958 15.1516038714 12.2723734171
356 1 120 38.9048319827 14.2229512795 32.0503911474 -34.8032032391
357 2 120 39.4548871553 14.9479572176 31.7536799462 12.5119040311
358 2 120 39.4842154192 13.6889666581 32.5939048064 11.9107048157
359 1 121 21.6001967409 15.1868155202 20.4719571733 -28.4884547382
360 2 121 20.8882070801 15.2794648043 21.1049806112 7.9701752477
361 2 121 22.1799831545 14.5298784942 20.8573314051 8.3349984063
362 1 122 22.2756700566 13.0605965805 8.9199941427 -38.7484767443
363 2 122 22.085799286 13.7773524092 9.5253386831 12.7188746385
364 2 122 22.9714706356 12.5623246377 9.3487346998 13.2784047739
365 1 123 17.3626476105 38.3786131743 27.4138832426 -31.7857841031
366 2 123 16.4059198716 38.3545506589 27.3958591195 10.3250546088
367 2 123 17.62843399 37.9772826534 26.5865240379 8.3577017175
368 1 124 8.1681129166 38.0287714285 16.5651802054 -32.0467983431
369 2 124 8.4610193257 37.1878746133 16.9163642335 9.6784035561
370 2 124 8.5338609551 38.6795583733 17.164293354 10.0839794666
371 1 125 1.8242834903 30.1750953644 39.5364119267 -27.2771279071
372 2 125 1.3926372776 30.6964011542 40.2132824169 10.0824421144
373 2 125 2.7244528625 30.5001804541 39.5207076003 7.803573749
374 1 126 12.865844261 31.2069800056 37.3536441719 -39.7452955551
375 2 126 12.3670199866 31.5686562163 36.6211166967 9.8799453536
376 2 126 13.4367266416 31.9230884837 37.6320571658 15.9236758699
377 1 127 22.9767778959 38.4110840858 24.5692087698 -24.5105074494
378 2 127 23.0986803022 39.2009510414 25.0959742164 7.5546604456
379 2 127 23.4001936277 38.6115841298 23.7344928358 6.2512186847
380 1 128 9.4691412071 18.7312766501 32.5691829034 -39.5399774282
381 2 128 9.4416221609 18.3639656288 33.452674361 11.921848372
382 2 128 9.3731673627 19.6748369029 32.6984690607 16.0143572458
383 1 129 21.359731781 27.3894890527 36.0130677347 -31.0430656894
384 2 129 21.8210284777 26.6344198296 36.3781809581 8.8601755702
385 2 129 21.7228063223 27.4900391509 35.1331254666 12.3069755604
386 1 130 36.241496344 16.8723783552 35.2219698238 -29.9687720579
387 2 130 35.5612052413 17.5380577275 35.1204472704 8.3505195646
388 2 130 37.0206697319 17.3633572991 35.4828536069 9.0820275515
389 1 131 12.986283392 38.7124210984 24.9995655063 -25.9625903805
390 2 131 12.1472242267 39.1029694212 24.7552633068 6.2481187456
391 2 131 13.1753191832 38.0907121684 24.2967317309 9.3032911925
392 1 132 13.1715494151 22.3247798281 0.1917217789 -36.4302347872
393 2 132 12.2787956927 22.6693472395 0.2139912667 15.2128802127
394 2 132 13.4258955568 22.3766427417 39.7003911551 10.9207483028
395 1 133 15.024710586 25.9796298701 5.1682833084 -34.5637497962
396 2 133 14.2468249851 26.5315823496 5.087820321 12.4564019891
397 2 133 15.7448592817 26.5347781458 4.8692380141 14.0380204769
398 1 134 8.9960830267 39.9965713889 18.3003165285 -32.4397595176
399 2 134 8.2392639835 40.2447381526 18.8312308655 8.495825002
400 2 134 9.2739971955 0.3818134775 17.8827331335 8.9569789862
401 1 135 31.712059739 12.0594906661 9.749231145 -36.0857677241
402 2 135 31.8523651013 11.2163372452 9.318373217 12.6619343411
403 2 135 31.2173957391 11.8454083205 10.5402482855 13.2012315293
404 1 136 19.5637936638 36.1628131776 7.722333896 -44.243650381
405 2 136 18.7774364971 35.7136951331 8.0324423101 16.0761865592
406 2 136 19.9479297554 35.5612935502 7.0844895255 16.2062598978
407 1 137 38.9853774776 22.8183248407 18.9915075007 -30.0661039838
408 2 137 38.6393227774 22.2003697861 19.6354093061 9.9240092881
409 2 137 38.2521831987 22.9827828156 18.3985390665 11.7826686863
410 1 138 5.3407594494 39.5780388576 1.7826901636 -35.4916828787
411 2 138 6.1008073543 40.081842899 2.0737923969 11.4058122951
412 2 138 5.711501581 38.7781099683 1.4100027826 11.5130933084
413 1 139 22.5072992632 15.9496187611 35.7133509636 -30.173191961
414 2 139 21.5787440687 16.1813793067 35.6959113482 6.8226511646
415 2 139 22.5417926576 15.1342851362 36.213624015 13.1652528
416 1 140 33.0399736331 23.7043663758 25.0700149338 -28.5865556017
417 2 140 32.4558013204 23.5886114896 25.8193982506 5.3721515621
418 2 140 33.9080333303 23.8165005892 25.4574812166 8.9192421844
419 1 141 33.5288171154 10.0124179822 37.2490921826 -30.6721991677
420 2 141 34.4855300847 10.0367776808 37.2674970611 10.9408384601
421 2 141 33.2963654403 10.3616996114 36.3887431823 8.263118538
422 1 142 20.3195765086 5.5065099438 34.7877561852 -39.0472831455
423 2 142 21.0866878727 5.6425723624 34.2316455728 13.5461587982
424 2 142 20.6410204899 5.6463628449 35.6784563441 12.8254816383
425 1 143 14.8651563462 23.1632101631 31.9084548103 -29.5412001727
426 2 143 15.4635253272 22.4170095908 31.945483291 7.9458162664
427 2 143 14.8495817582 23.502967548 32.8031917502 10.0795025776
428 1 144 28.0340252528 37.3800995668 33.9835478797 -35.1171736167
429 2 144 27.8379040495 37.011680155 33.1221330838 11.9166363485
430 2 144 28.3350314268 38.2702129804 33.8009958755 9.2093490781
431 1 145 17.3331141571 7.1612983853 19.9940729836 -27.853207447
432 2 145 17.4007333546 7.8338679658 19.3163491139 9.0101253898
433 2 145 17.8780698122 7.486870482 20.71049324 5.9592707445
434 1 146 25.292527404 2.1107924568 5.7284699213 -36.6781920825
435 2 146 25.3289002668 1.1654766577 5.5825696309 11.4078995872
436 2 146 24.4400046128 2.3744426304 5.3821675728 13.6110204865
437 1 147 3.7883985668 21.386995802 2.7149440002 -36.6524788531
438 2 147 3.0337547318 21.9648033698 2.8284470263 11.5250861004
439 2 147 4.0546138627 21.1620007854 3.6064250705 13.0347230234
440 1 148 36.912289528 12.3900599753 22.8788074902 -29.7182810554
441 2 148 37.4736715838 12.6924375069 22.1649098394 8.7608512569
442 2 148 37.0620059081 11.4454631165 22.9182234745 6.749799628
443 1 149 2.8784109836 19.2266244115 31.7125066164 -33.0109376575
444 2 149 2.7895131556 20.072623271 32.1513858093 14.4538407395
445 2 149 3.1610366727 19.4454387572 30.8245455576 7.9031322415
446 1 150 1.1862863187 9.5550216568 16.2715022145 -27.3251829125
447 2 150 2.076122709 9.3212247613 16.5356272798 8.9177822473
448 2 150 1.237308316 10.4857191035 16.0537159469 7.6382905298
449 1 151 1.6828207497 4.9963020643 36.1434864334 -30.3962306884
450 2 151 2.1194794552 5.8104298707 36.3939997661 8.1556593508
451 2 151 1.1434184056 4.7702826611 36.9012411302 11.4634044583
452 1 152 23.2776416234 24.3605325402 18.7057429457 -34.0479488652
453 2 152 24.2126348912 24.1655245089 18.7689196568 10.5138877381
454 2 152 23.1243323421 25.0220194965 19.3804007189 11.7815520329
455 1 153 25.759047222 39.7734060396 5.013799223 -35.1870862525
456 2 153 26.6858252932 39.7912326644 5.2525385331 11.4012513226
457 2 153 25.7393319307 39.3401761803 4.1604792149 12.529529535
458 1 154 8.679526294 16.539922607 4.8208997854 -35.4809797585
459 2 154 7.7246711718 16.5271776341 4.8866348693 11.9406772234
460 2 154 8.9789570599 16.0370101895 5.5782980669 12.8801831138
461 1 155 14.579110953 1.8689285695 2.6692782677 -57.4077304301
462 2 155 14.7225169197 2.4810476162 1.9474910127 19.6314919211
463 2 155 15.4538340803 1.7034666274 3.0210077607 22.7810384685
464 1 156 34.8371297161 1.8729449697 38.5285795577 -30.7563708019
465 2 156 34.7427421646 1.3075238454 39.2951444814 10.8260893977
466 2 156 35.0559426061 1.2744031244 37.8143664113 9.8919275984